# vtk DataFile Version 2.0
bahama_g02
ASCII
DATASET UNSTRUCTURED_GRID
POINTS 926 double
5.667e+04 5.500e+03 0.000e+00
5.867e+04 5.333e+03 0.000e+00
5.767e+04 6.833e+03 0.000e+00
5.467e+04 5.667e+03 0.000e+00
5.567e+04 7.000e+03 0.000e+00
6.142e+04 5.417e+03 0.000e+00
6.033e+04 7.083e+03 0.000e+00
6.417e+04 5.500e+03 0.000e+00
6.308e+04 7.167e+03 0.000e+00
5.200e+04 5.667e+03 0.000e+00
5.183e+04 7.333e+03 0.000e+00
5.100e+04 6.333e+03 0.000e+00
5.333e+04 5.667e+03 0.000e+00
5.317e+04 7.333e+03 0.000e+00
6.625e+04 6.583e+03 0.000e+00
6.542e+04 7.750e+03 0.000e+00
5.083e+04 8.000e+03 0.000e+00
5.000e+04 7.000e+03 0.000e+00
5.667e+04 8.333e+03 0.000e+00
5.933e+04 8.583e+03 0.000e+00
5.417e+04 8.667e+03 0.000e+00
4.900e+04 7.833e+03 0.000e+00
4.983e+04 8.833e+03 0.000e+00
6.200e+04 8.833e+03 0.000e+00
6.833e+04 7.667e+03 0.000e+00
6.750e+04 8.833e+03 0.000e+00
5.167e+04 9.000e+03 0.000e+00
6.433e+04 9.417e+03 0.000e+00
4.800e+04 8.667e+03 0.000e+00
6.667e+04 1.000e+04 0.000e+00
5.517e+04 1.017e+04 0.000e+00
4.917e+04 1.033e+04 0.000e+00
7.033e+04 9.167e+03 0.000e+00
6.950e+04 1.033e+04 0.000e+00
5.800e+04 1.050e+04 0.000e+00
5.267e+04 1.050e+04 0.000e+00
5.100e+04 1.050e+04 0.000e+00
6.067e+04 1.075e+04 0.000e+00
6.317e+04 1.108e+04 0.000e+00
3.400e+04 9.333e+03 0.000e+00
3.617e+04 9.333e+03 0.000e+00
3.492e+04 1.133e+04 0.000e+00
3.833e+04 9.333e+03 0.000e+00
3.708e+04 1.133e+04 0.000e+00
4.083e+04 9.667e+03 0.000e+00
3.950e+04 1.167e+04 0.000e+00
4.717e+04 1.167e+04 0.000e+00
4.567e+04 9.333e+03 0.000e+00
6.550e+04 1.167e+04 0.000e+00
3.283e+04 1.100e+04 0.000e+00
7.233e+04 1.067e+04 0.000e+00
4.333e+04 1.000e+04 0.000e+00
4.200e+04 1.200e+04 0.000e+00
5.200e+04 1.200e+04 0.000e+00
5.367e+04 1.200e+04 0.000e+00
5.033e+04 1.200e+04 0.000e+00
6.825e+04 1.217e+04 0.000e+00
5.650e+04 1.233e+04 0.000e+00
4.483e+04 1.233e+04 0.000e+00
7.108e+04 1.250e+04 0.000e+00
5.933e+04 1.267e+04 0.000e+00
6.183e+04 1.300e+04 0.000e+00
3.375e+04 1.300e+04 0.000e+00
7.283e+04 1.283e+04 0.000e+00
6.433e+04 1.333e+04 0.000e+00
3.583e+04 1.333e+04 0.000e+00
4.833e+04 1.333e+04 0.000e+00
3.167e+04 1.267e+04 0.000e+00
3.825e+04 1.367e+04 0.000e+00
6.708e+04 1.383e+04 0.000e+00
5.067e+04 1.383e+04 0.000e+00
5.233e+04 1.383e+04 0.000e+00
4.067e+04 1.400e+04 0.000e+00
5.517e+04 1.425e+04 0.000e+00
4.350e+04 1.433e+04 0.000e+00
6.983e+04 1.433e+04 0.000e+00
5.800e+04 1.458e+04 0.000e+00
4.633e+04 1.467e+04 0.000e+00
3.250e+04 1.467e+04 0.000e+00
7.158e+04 1.467e+04 0.000e+00
6.050e+04 1.500e+04 0.000e+00
3.458e+04 1.500e+04 0.000e+00
3.050e+04 1.400e+04 0.000e+00
7.333e+04 1.500e+04 0.000e+00
6.300e+04 1.533e+04 0.000e+00
4.867e+04 1.517e+04 0.000e+00
3.708e+04 1.567e+04 0.000e+00
5.100e+04 1.567e+04 0.000e+00
6.550e+04 1.583e+04 0.000e+00
3.133e+04 1.600e+04 0.000e+00
3.950e+04 1.600e+04 0.000e+00
5.383e+04 1.608e+04 0.000e+00
4.200e+04 1.633e+04 0.000e+00
6.825e+04 1.633e+04 0.000e+00
2.933e+04 1.533e+04 0.000e+00
5.667e+04 1.650e+04 0.000e+00
4.483e+04 1.667e+04 0.000e+00
3.333e+04 1.667e+04 0.000e+00
5.917e+04 1.692e+04 0.000e+00
4.750e+04 1.717e+04 0.000e+00
7.142e+04 1.700e+04 0.000e+00
6.167e+04 1.733e+04 0.000e+00
3.583e+04 1.733e+04 0.000e+00
3.050e+04 1.733e+04 0.000e+00
7.317e+04 1.733e+04 0.000e+00
4.983e+04 1.767e+04 0.000e+00
6.417e+04 1.783e+04 0.000e+00
2.817e+04 1.683e+04 0.000e+00
5.233e+04 1.800e+04 0.000e+00
3.833e+04 1.800e+04 0.000e+00
3.250e+04 1.800e+04 0.000e+00
6.667e+04 1.833e+04 0.000e+00
4.083e+04 1.833e+04 0.000e+00
5.517e+04 1.842e+04 0.000e+00
4.333e+04 1.867e+04 0.000e+00
2.933e+04 1.883e+04 0.000e+00
5.783e+04 1.892e+04 0.000e+00
6.983e+04 1.900e+04 0.000e+00
4.600e+04 1.917e+04 0.000e+00
3.400e+04 1.917e+04 0.000e+00
6.033e+04 1.933e+04 0.000e+00
3.167e+04 1.933e+04 0.000e+00
2.700e+04 1.833e+04 0.000e+00
4.867e+04 1.967e+04 0.000e+00
6.283e+04 1.983e+04 0.000e+00
3.650e+04 1.983e+04 0.000e+00
7.300e+04 1.967e+04 0.000e+00
5.117e+04 2.000e+04 0.000e+00
2.850e+04 2.000e+04 0.000e+00
5.367e+04 2.033e+04 0.000e+00
3.950e+04 2.033e+04 0.000e+00
6.533e+04 2.033e+04 0.000e+00
2.683e+04 2.000e+04 0.000e+00
3.317e+04 2.050e+04 0.000e+00
3.083e+04 2.050e+04 0.000e+00
4.200e+04 2.067e+04 0.000e+00
6.800e+04 2.067e+04 0.000e+00
5.633e+04 2.083e+04 0.000e+00
4.467e+04 2.100e+04 0.000e+00
5.900e+04 2.133e+04 0.000e+00
7.117e+04 2.133e+04 0.000e+00
4.733e+04 2.150e+04 0.000e+00
3.467e+04 2.167e+04 0.000e+00
3.233e+04 2.167e+04 0.000e+00
3.000e+04 2.167e+04 0.000e+00
7.283e+04 2.150e+04 0.000e+00
6.150e+04 2.183e+04 0.000e+00
2.833e+04 2.167e+04 0.000e+00
4.975e+04 2.200e+04 0.000e+00
2.667e+04 2.167e+04 0.000e+00
3.767e+04 2.217e+04 0.000e+00
6.400e+04 2.233e+04 0.000e+00
5.225e+04 2.233e+04 0.000e+00
4.067e+04 2.267e+04 0.000e+00
6.667e+04 2.267e+04 0.000e+00
5.500e+04 2.267e+04 0.000e+00
4.333e+04 2.300e+04 0.000e+00
6.933e+04 2.300e+04 0.000e+00
2.733e+04 2.300e+04 0.000e+00
2.900e+04 2.300e+04 0.000e+00
5.767e+04 2.317e+04 0.000e+00
4.600e+04 2.333e+04 0.000e+00
7.100e+04 2.317e+04 0.000e+00
3.133e+04 2.350e+04 0.000e+00
3.367e+04 2.350e+04 0.000e+00
7.267e+04 2.333e+04 0.000e+00
6.017e+04 2.367e+04 0.000e+00
4.842e+04 2.383e+04 0.000e+00
3.633e+04 2.400e+04 0.000e+00
6.267e+04 2.417e+04 0.000e+00
5.083e+04 2.433e+04 0.000e+00
2.800e+04 2.433e+04 0.000e+00
3.933e+04 2.450e+04 0.000e+00
6.533e+04 2.458e+04 0.000e+00
5.358e+04 2.467e+04 0.000e+00
4.183e+04 2.483e+04 0.000e+00
3.033e+04 2.483e+04 0.000e+00
6.800e+04 2.492e+04 0.000e+00
5.633e+04 2.500e+04 0.000e+00
4.450e+04 2.517e+04 0.000e+00
3.267e+04 2.533e+04 0.000e+00
5.883e+04 2.550e+04 0.000e+00
7.033e+04 2.550e+04 0.000e+00
4.717e+04 2.567e+04 0.000e+00
7.200e+04 2.567e+04 0.000e+00
3.533e+04 2.583e+04 0.000e+00
6.133e+04 2.600e+04 0.000e+00
4.958e+04 2.617e+04 0.000e+00
3.800e+04 2.633e+04 0.000e+00
6.400e+04 2.642e+04 0.000e+00
5.208e+04 2.650e+04 0.000e+00
4.050e+04 2.667e+04 0.000e+00
2.908e+04 2.667e+04 0.000e+00
5.483e+04 2.683e+04 0.000e+00
6.667e+04 2.683e+04 0.000e+00
4.300e+04 2.700e+04 0.000e+00
3.142e+04 2.717e+04 0.000e+00
2.667e+04 2.633e+04 0.000e+00
5.750e+04 2.733e+04 0.000e+00
6.900e+04 2.742e+04 0.000e+00
4.567e+04 2.750e+04 0.000e+00
3.400e+04 2.767e+04 0.000e+00
6.000e+04 2.783e+04 0.000e+00
4.833e+04 2.800e+04 0.000e+00
7.133e+04 2.800e+04 0.000e+00
3.667e+04 2.817e+04 0.000e+00
6.250e+04 2.825e+04 0.000e+00
5.083e+04 2.833e+04 0.000e+00
3.917e+04 2.850e+04 0.000e+00
2.775e+04 2.867e+04 0.000e+00
5.333e+04 2.867e+04 0.000e+00
6.517e+04 2.867e+04 0.000e+00
4.167e+04 2.883e+04 0.000e+00
3.017e+04 2.900e+04 0.000e+00
5.600e+04 2.917e+04 0.000e+00
2.533e+04 2.833e+04 0.000e+00
6.750e+04 2.925e+04 0.000e+00
4.425e+04 2.933e+04 0.000e+00
3.275e+04 2.950e+04 0.000e+00
5.867e+04 2.967e+04 0.000e+00
4.692e+04 2.983e+04 0.000e+00
6.983e+04 2.983e+04 0.000e+00
3.533e+04 3.000e+04 0.000e+00
6.117e+04 3.008e+04 0.000e+00
4.950e+04 3.025e+04 0.000e+00
3.783e+04 3.033e+04 0.000e+00
2.650e+04 3.050e+04 0.000e+00
6.367e+04 3.050e+04 0.000e+00
5.200e+04 3.058e+04 0.000e+00
4.033e+04 3.067e+04 0.000e+00
2.892e+04 3.083e+04 0.000e+00
5.458e+04 3.100e+04 0.000e+00
2.408e+04 3.000e+04 0.000e+00
6.600e+04 3.108e+04 0.000e+00
4.292e+04 3.117e+04 0.000e+00
3.142e+04 3.133e+04 0.000e+00
5.725e+04 3.150e+04 0.000e+00
4.550e+04 3.167e+04 0.000e+00
6.833e+04 3.167e+04 0.000e+00
3.400e+04 3.183e+04 0.000e+00
4.808e+04 3.208e+04 0.000e+00
3.650e+04 3.217e+04 0.000e+00
2.525e+04 3.217e+04 0.000e+00
3.900e+04 3.250e+04 0.000e+00
5.067e+04 3.250e+04 0.000e+00
6.000e+04 3.250e+04 0.000e+00
2.767e+04 3.267e+04 0.000e+00
2.283e+04 3.167e+04 0.000e+00
4.150e+04 3.283e+04 0.000e+00
5.325e+04 3.292e+04 0.000e+00
6.250e+04 3.292e+04 0.000e+00
6.450e+04 3.300e+04 0.000e+00
3.017e+04 3.317e+04 0.000e+00
4.408e+04 3.333e+04 0.000e+00
5.583e+04 3.333e+04 0.000e+00
6.683e+04 3.358e+04 0.000e+00
3.267e+04 3.367e+04 0.000e+00
4.675e+04 3.392e+04 0.000e+00
3.517e+04 3.400e+04 0.000e+00
2.408e+04 3.417e+04 0.000e+00
3.767e+04 3.433e+04 0.000e+00
4.933e+04 3.433e+04 0.000e+00
5.858e+04 3.433e+04 0.000e+00
2.192e+04 3.367e+04 0.000e+00
4.017e+04 3.467e+04 0.000e+00
2.650e+04 3.467e+04 0.000e+00
5.200e+04 3.475e+04 0.000e+00
4.267e+04 3.500e+04 0.000e+00
2.883e+04 3.500e+04 0.000e+00
5.458e+04 3.517e+04 0.000e+00
6.133e+04 3.533e+04 0.000e+00
6.333e+04 3.542e+04 0.000e+00
3.133e+04 3.550e+04 0.000e+00
6.533e+04 3.550e+04 0.000e+00
4.533e+04 3.558e+04 0.000e+00
3.383e+04 3.600e+04 0.000e+00
5.642e+04 3.600e+04 0.000e+00
4.800e+04 3.617e+04 0.000e+00
2.317e+04 3.617e+04 0.000e+00
3.633e+04 3.633e+04 0.000e+00
2.100e+04 3.567e+04 0.000e+00
5.067e+04 3.658e+04 0.000e+00
3.883e+04 3.667e+04 0.000e+00
2.533e+04 3.667e+04 0.000e+00
6.250e+04 3.683e+04 0.000e+00
6.450e+04 3.692e+04 0.000e+00
4.133e+04 3.700e+04 0.000e+00
2.767e+04 3.700e+04 0.000e+00
5.333e+04 3.700e+04 0.000e+00
5.917e+04 3.700e+04 0.000e+00
3.000e+04 3.733e+04 0.000e+00
6.100e+04 3.733e+04 0.000e+00
4.400e+04 3.750e+04 0.000e+00
3.250e+04 3.783e+04 0.000e+00
5.517e+04 3.783e+04 0.000e+00
2.150e+04 3.800e+04 0.000e+00
2.017e+04 3.767e+04 0.000e+00
4.667e+04 3.808e+04 0.000e+00
3.500e+04 3.833e+04 0.000e+00
6.367e+04 3.833e+04 0.000e+00
4.925e+04 3.850e+04 0.000e+00
2.367e+04 3.850e+04 0.000e+00
3.750e+04 3.867e+04 0.000e+00
5.700e+04 3.867e+04 0.000e+00
6.217e+04 3.883e+04 0.000e+00
5.192e+04 3.892e+04 0.000e+00
4.000e+04 3.900e+04 0.000e+00
2.650e+04 3.900e+04 0.000e+00
5.883e+04 3.900e+04 0.000e+00
2.883e+04 3.933e+04 0.000e+00
6.067e+04 3.933e+04 0.000e+00
4.267e+04 3.950e+04 0.000e+00
3.125e+04 3.967e+04 0.000e+00
5.442e+04 3.967e+04 0.000e+00
6.350e+04 3.967e+04 0.000e+00
2.067e+04 4.000e+04 0.000e+00
4.533e+04 4.000e+04 0.000e+00
1.933e+04 3.967e+04 0.000e+00
3.375e+04 4.017e+04 0.000e+00
6.200e+04 4.017e+04 0.000e+00
2.200e+04 4.033e+04 0.000e+00
4.792e+04 4.042e+04 0.000e+00
3.625e+04 4.058e+04 0.000e+00
5.625e+04 4.050e+04 0.000e+00
5.050e+04 4.083e+04 0.000e+00
2.483e+04 4.083e+04 0.000e+00
5.883e+04 4.058e+04 0.000e+00
3.875e+04 4.092e+04 0.000e+00
6.067e+04 4.092e+04 0.000e+00
6.333e+04 4.100e+04 0.000e+00
[...]
POINT_DATA 926
SCALARS data double 1
LOOKUP_TABLE default
-1.067e-02
-2.040e-04
-9.347e-02
-2.096e-02
-1.046e-01
-4.853e-03
-1.024e-01
-8.046e-03
-9.368e-02
-1.969e-02
-1.161e-01
-5.634e-02
-2.047e-02
-1.210e-01
-4.861e-02
-1.022e-01
-1.482e-01
-8.908e-02
-1.874e-01
-1.949e-01
-2.048e-01
-1.253e-01
-1.840e-01
-1.891e-01
-6.743e-02
-1.148e-01
-2.101e-01
-1.888e-01
-1.546e-01
-1.701e-01
-2.980e-01
-2.501e-01
-7.044e-02
-1.131e-01
-3.149e-01
-3.035e-01
-2.854e-01
-3.072e-01
-2.862e-01
1.013e-01
5.546e-02
1.218e-01
7.520e-03
5.228e-02
-5.193e-02
-2.886e-02
-2.678e-01
-1.462e-01
-2.595e-01
1.745e-01
-3.939e-02
-1.176e-01
-1.198e-01
-3.788e-01
-3.967e-01
-3.523e-01
-1.947e-01
-4.258e-01
-2.238e-01
-1.002e-01
-4.270e-01
-4.049e-01
1.981e-01
-3.408e-02
-3.582e-01
1.214e-01
-3.675e-01
2.616e-01
1.885e-02
-2.838e-01
-4.483e-01
-4.793e-01
-9.238e-02
-5.294e-01
-2.252e-01
-1.810e-01
-5.418e-01
-3.515e-01
2.911e-01
-1.031e-01
-5.283e-01
2.047e-01
3.469e-01
-1.725e-02
-4.809e-01
-4.529e-01
8.584e-02
-5.408e-01
-4.104e-01
3.802e-01
-4.625e-02
-6.117e-01
-1.877e-01
-2.981e-01
4.371e-01
-6.450e-01
-3.434e-01
3.012e-01
-6.415e-01
-4.822e-01
-1.344e-01
-6.030e-01
1.725e-01
4.583e-01
-3.092e-02
-5.896e-01
-5.328e-01
5.353e-01
-6.727e-01
2.159e-02
3.758e-01
-4.287e-01
-1.407e-01
-7.297e-01
-3.021e-01
5.577e-01
-7.453e-01
-2.556e-01
-4.671e-01
3.109e-01
-7.175e-01
4.532e-01
6.315e-01
-6.127e-01
-6.531e-01
1.530e-01
-4.711e-02
-7.177e-01
6.304e-01
-7.888e-01
-6.023e-02
-5.505e-01
6.959e-01
3.865e-01
5.273e-01
-2.418e-01
-4.002e-01
-8.271e-01
-4.270e-01
-8.173e-01
-1.882e-01
-5.963e-01
3.008e-01
4.608e-01
6.006e-01
-6.377e-02
-7.642e-01
6.846e-01
-7.263e-01
7.534e-01
7.836e-02
-6.687e-01
-8.227e-01
-1.580e-01
-5.212e-01
-8.814e-01
-3.641e-01
-3.400e-01
7.622e-01
6.835e-01
-8.923e-01
-5.533e-01
-2.137e-01
5.565e-01
3.948e-01
-8.139e-02
-8.555e-01
-7.044e-01
1.920e-01
-7.729e-01
-8.252e-01
7.605e-01
-5.556e-02
-6.365e-01
-9.122e-01
-2.636e-01
6.402e-01
-4.593e-01
-9.443e-01
-4.737e-01
4.881e-01
-9.272e-01
-2.816e-01
-6.614e-01
-1.430e-01
2.833e-01
-8.616e-01
-8.020e-01
5.822e-02
-7.401e-01
-9.066e-01
-1.592e-01
7.382e-01
-9.689e-01
-5.739e-01
-3.707e-01
5.941e-01
8.531e-01
-9.753e-01
-4.002e-01
-5.783e-01
4.013e-01
-9.299e-01
-7.545e-01
-2.060e-01
1.772e-01
-8.357e-01
-8.805e-01
-4.427e-02
8.261e-01
-9.625e-01
-6.875e-01
-2.646e-01
6.889e-01
-9.972e-01
9.237e-01
-5.247e-01
-4.792e-01
5.060e-01
-9.741e-01
-6.741e-01
-3.374e-01
2.950e-01
-9.010e-01
-8.261e-01
7.503e-02
8.877e-01
-7.820e-01
-9.306e-01
-1.487e-01
7.675e-01
-9.890e-01
9.658e-01
-6.346e-01
-3.715e-01
6.048e-01
-9.926e-01
-5.733e-01
-4.593e-01
4.052e-01
-7.434e-01
1.923e-01
9.275e-01
-2.934e-02
-8.723e-01
-9.327e-01
8.258e-01
9.854e-01
-2.482e-01
-9.531e-01
-8.318e-01
-7.230e-01
6.803e-01
-4.587e-01
-9.818e-01
-5.639e-01
5.019e-01
-6.466e-01
3.011e-01
9.381e-01
8.711e-02
-7.918e-01
-9.459e-01
9.759e-01
-1.290e-01
8.550e-01
-8.951e-01
-3.361e-01
7.396e-01
-9.445e-01
-8.507e-01
-7.598e-01
5.800e-01
-6.448e-01
-5.327e-01
3.942e-01
-9.370e-01
-6.935e-01
9.186e-01
1.936e-01
9.442e-01
-8.134e-01
-1.351e-02
8.582e-01
-7.735e-01
-6.714e-01
-2.163e-01
7.625e-01
-8.840e-01
-8.806e-01
6.351e-01
-8.210e-01
-4.144e-01
4.686e-01
-8.873e-01
8.857e-01
8.920e-01
-5.812e-01
2.834e-01
-6.852e-01
-7.084e-01
8.493e-01
9.077e-02
-8.635e-01
-7.389e-01
-7.962e-01
-1.019e-01
7.592e-01
-8.309e-01
6.522e-01
-7.764e-01
-2.944e-01
5.146e-01
-8.225e-01
-6.590e-01
8.202e-01
-4.623e-01
8.215e-01
3.483e-01
-7.059e-01
8.067e-01
-5.946e-01
1.723e-01
-8.027e-01
-6.899e-01
7.477e-01
-7.768e-01
-5.650e-03
-7.236e-01
-6.271e-01
6.431e-01
-1.824e-01
7.551e-01
-7.297e-01
5.273e-01
-3.453e-01
-6.526e-01
7.496e-01
3.908e-01
-4.817e-01
2.346e-01
-7.275e-01
-7.146e-01
7.009e-01
-5.809e-01
-5.671e-01
7.411e-02
-6.457e-01
6.236e-01
-8.707e-02
-6.422e-01
6.782e-01
5.228e-01
-5.789e-01
-2.349e-01
4.085e-01
-6.530e-01
-3.656e-01
6.427e-01
-5.045e-01
2.724e-01
-6.328e-01
-6.065e-01
-4.674e-01
1.329e-01
-5.358e-01
5.749e-01
-4.310e-03
-5.345e-01
5.000e-01
-5.687e-01
-4.683e-01
6.001e-01
-1.371e-01
-4.214e-01
4.005e-01
-5.566e-01
-2.473e-01
2.864e-01
5.588e-01
-3.434e-01
-5.220e-01
-3.863e-01
-4.863e-01
1.675e-01
-4.152e-01
-4.235e-01
-3.403e-01
5.239e-02
5.150e-01
4.867e-01
-4.540e-01
-5.735e-02
4.316e-01
-4.568e-01
-3.069e-01
-1.530e-01
3.591e-01
-3.427e-01
4.490e-01
-2.705e-01
2.739e-01
-4.301e-01
-2.290e-01
-2.467e-01
-3.965e-01
1.792e-01
-2.938e-01
-3.551e-01
4.241e-01
8.630e-02
-3.354e-01
-2.048e-01
-1.988e-01
3.770e-01
1.102e-04
3.594e-01
-3.422e-01
3.384e-01
-2.309e-01
-2.685e-01
-7.523e-02
2.847e-01
-3.277e-01
-1.820e-01
-1.339e-01
2.249e-01
-3.047e-01
-2.533e-01
3.279e-01
1.592e-01
-1.834e-01
-2.656e-01
-1.978e-01
9.261e-02
-2.150e-01
2.632e-01
-1.611e-01
2.974e-02
-2.270e-01
2.400e-01
2.398e-01
-1.764e-01
-2.138e-01
2.004e-01
-2.272e-02
1.580e-01
-1.339e-01
2.366e-01
-6.044e-02
-1.870e-01
1.134e-01
-8.963e-02
-1.599e-01
1.526e-01
7.097e-02
-1.054e-01
1.435e-01
-1.249e-01
3.217e-02
-1.074e-01
1.250e-01
1.497e-01
1.592e-03
-9.920e-02
1.001e-01
-7.217e-02
7.230e-02
-1.516e-02
-7.282e-02
4.525e-02
4.043e-02
-2.034e-02
2.296e-02
-4.111e-02
2.481e-02
-1.649e-02
7.291e-03
-1.644e-02
5.735e-02
-8.117e-03
5.015e-03
5.019e-03
9.690e-03
-1.437e-03
-1.570e-02
3.760e-03
-3.895e-02
4.129e-02
-5.098e-02
-5.068e-02
2.203e-02
7.337e-02
-5.426e-02
8.802e-02
-8.615e-02
5.075e-02
-2.080e-02
-4.827e-02
7.830e-02
-1.131e-01
1.011e-01
1.068e-01
-3.162e-02
-1.358e-01
-4.733e-03
1.490e-01
-1.560e-01
3.654e-02
-9.456e-02
-1.652e-01
1.871e-01
-1.410e-01
2.028e-01
8.884e-02
-1.547e-01
2.064e-01
-1.288e-01
-2.168e-01
1.470e-01
-2.083e-01
-9.100e-02
1.957e-01
-2.479e-01
-4.019e-02
-2.711e-01
2.533e-01
2.410e-02
-1.644e-01
-2.786e-01
3.036e-01
3.034e-01
9.853e-02
3.083e-01
-2.308e-01
-2.691e-01
1.807e-01
-2.295e-01
-3.495e-01
-1.746e-01
2.623e-01
-3.362e-01
-1.132e-04
-3.828e-01
-1.033e-01
-3.031e-01
3.395e-01
9.230e-02
-3.939e-01
4.094e-01
4.201e-01
4.051e-01
-3.196e-02
-3.835e-01
1.858e-01
-3.445e-01
-4.418e-01
2.919e-01
-2.775e-01
-4.080e-01
7.169e-02
3.897e-01
-4.929e-01
-1.898e-01
-3.624e-01
-5.135e-01
4.742e-01
1.777e-01
3.924e-02
5.310e-01
-1.037e-01
-5.019e-01
5.252e-01
-4.647e-01
2.927e-01
-5.143e-01
-1.705e-04
1.372e-01
-4.687e-01
-3.939e-01
4.155e-01
-5.824e-01
-1.929e-01
-2.966e-01
-4.062e-01
5.214e-01
2.610e-01
-6.212e-01
1.016e-01
5.934e-01
-8.468e-02
-6.195e-01
6.352e-01
3.629e-01
-5.846e-01
4.918e-01
-5.546e-01
9.697e-03
2.161e-01
-5.169e-01
-4.871e-01
-6.356e-01
3.288e-01
-1.824e-01
-3.035e-01
-4.154e-01
6.335e-01
-3.806e-01
-6.948e-01
6.913e-01
4.362e-01
5.870e-01
1.261e-01
-8.553e-02
-7.168e-01
3.048e-01
2.126e-01
-6.932e-01
-4.545e-01
4.211e-01
-2.457e-01
5.409e-01
-5.669e-01
-3.736e-01
2.201e-02
-6.324e-01
-1.569e-01
-6.719e-01
1.126e-01
7.346e-01
-3.259e-01
-5.346e-01
-7.458e-01
1.819e-01
5.112e-01
6.989e-01
3.985e-01
3.040e-01
-4.691e-02
6.408e-01
-7.902e-01
-3.133e-01
-2.205e-01
-7.889e-01
2.727e-01
7.618e-01
3.739e-01
4.918e-01
-4.335e-01
-1.217e-01
-4.941e-01
6.178e-01
-7.400e-01
-5.674e-01
7.113e-01
1.686e-01
-6.514e-01
-6.951e-01
-2.841e-01
5.834e-01
3.432e-01
-7.905e-01
4.702e-01
2.373e-01
6.914e-01
-2.689e-01
7.764e-01
-1.661e-01
-8.530e-01
-3.656e-01
1.264e-01
3.059e-01
1.942e-01
4.266e-01
5.513e-01
-8.716e-01
-5.536e-01
-3.881e-01
6.818e-01
-5.420e-01
-8.344e-01
7.786e-01
2.638e-01
-7.551e-01
-6.918e-01
-2.202e-01
9.313e-02
-1.961e-01
-3.166e-01
3.904e-01
-4.581e-01
5.095e-01
-8.092e-01
-6.271e-01
6.533e-01
1.629e-01
7.719e-01
-8.916e-01
3.580e-01
-9.297e-01
-2.937e-01
2.727e-01
4.836e-01
-2.621e-01
5.533e-02
-4.666e-01
-1.513e-01
-9.139e-01
6.224e-01
-3.687e-01
-1.172e-01
7.543e-01
-6.422e-01
-8.448e-01
1.677e-01
-4.920e-01
9.879e-02
-7.857e-01
-7.270e-01
-1.987e-01
2.801e-01
4.520e-01
3.676e-01
-8.494e-02
2.128e-01
-8.976e-01
5.981e-01
-4.433e-01
-3.116e-01
7.263e-01
1.100e-01
-6.042e-01
-1.864e-01
-9.585e-01
-3.671e-01
-1.310e-01
-9.697e-01
1.592e-01
2.879e-04
2.472e-01
1.012e-01
-1.470e-02
-5.615e-01
-9.258e-01
5.452e-01
3.301e-01
4.185e-01
-2.469e-01
-3.990e-01
-8.280e-01
-7.298e-01
6.842e-01
1.181e-01
1.983e-01
5.068e-02
-5.926e-02
-5.557e-01
-8.689e-01
-6.822e-01
-1.030e-01
-2.913e-01
2.774e-01
-9.588e-01
-1.774e-01
-4.834e-01
-3.350e-01
7.385e-02
-9.935e-01
6.313e-01
-4.776e-01
5.101e-01
1.530e-01
3.773e-01
-9.778e-01
-6.446e-01
-4.501e-02
-6.616e-01
2.362e-01
-9.057e-01
-8.077e-01
-4.404e-01
-3.088e-01
-7.813e-01
8.926e-02
-2.074e-01
-9.249e-01
5.630e-01
4.336e-01
3.229e-01
-3.996e-01
-1.048e-01
-9.888e-01
-6.236e-01
-5.255e-01
1.782e-01
-9.967e-01
-5.749e-01
2.959e-02
-9.498e-01
-7.365e-01
-2.627e-01
4.856e-01
-8.485e-01
3.778e-01
-8.628e-01
2.648e-01
-7.087e-01
1.184e-01
-9.534e-01
-2.921e-01
-2.998e-02
4.159e-01
-9.882e-01
-5.340e-01
3.053e-01
-9.674e-01
-4.734e-01
1.612e-01
-3.125e-01
-1.438e-01
-6.405e-01
-8.914e-01
-7.824e-01
3.430e-01
-7.722e-01
-8.940e-01
-6.154e-01
7.197e-02
-9.514e-01
-4.110e-01
-9.546e-01
-3.628e-01
2.537e-01
-5.355e-01
-9.045e-01
-1.847e-01
-6.823e-01
-8.108e-01
-7.316e-03
-8.099e-01
-6.749e-01
-5.045e-01
-8.886e-01
1.649e-01
-2.962e-01
-9.146e-01
-8.834e-02
-8.877e-01
-4.144e-01
-2.780e-01
-8.183e-01
-5.656e-01
7.936e-02
-7.092e-01
-7.088e-01
-5.617e-01
-8.033e-01
-3.876e-01
-8.516e-01
-1.969e-01
-8.474e-01
-3.279e-01
-1.947e-01
-2.523e-04
-8.014e-01
-7.163e-01
-4.418e-01
-5.889e-01
-2.574e-01
-7.004e-01
-5.848e-01
-7.644e-01
-4.340e-01
-2.721e-01
-7.828e-01
-3.711e-01
-9.297e-02
-7.580e-01
-6.960e-01
-3.020e-01
-5.890e-01
-4.457e-01
-5.640e-01
-6.525e-01
-4.538e-01
-3.161e-01
-6.882e-01
-1.657e-01
-6.829e-01
-3.769e-01
-6.408e-01
-5.589e-01
-4.490e-01
-4.222e-01
-3.418e-01
-5.163e-01
-5.748e-01
-2.167e-01
-5.863e-01
-5.614e-01
-4.366e-01
-4.991e-01
-4.981e-01
-4.144e-01
-3.324e-01
-2.376e-01
-4.605e-01
-4.192e-01
-4.347e-01
-4.537e-01
-3.686e-01
-2.996e-01
-3.830e-01
-2.286e-01
-3.023e-01
-3.257e-01
-3.257e-01
-2.507e-01
-1.924e-01
-2.432e-01
-2.321e-01
-1.484e-01
-1.528e-01
-1.121e-01
-7.285e-02
1.804e-04
SCALARS id_v int 1
LOOKUP_TABLE default
100
100
0
100
0
100
0
100
0
100
0
100
100
0
100
0
0
100
0
0
0
100
0
0
100
0
0
0
100
0
0
0
100
0
0
0
0
0
0
100
100
0
100
0
100
0
0
100
0
100
100
100
0
0
0
0
0
0
0
0
0
0
0
100
0
0
0
100
0
0
0
0
0
0
0
0
0
0
0
0
0
0
100
100
0
0
0
0
0
0
0
0
0
0
100
0
0
0
0
0
0
0
0
0
100
0
0
100
0
0
0
0
0
0
0
0
0
0
0
0
0
0
100
0
0
0
100
0
0
0
0
0
100
0
0
0
0
0
0
0
0
0
0
0
0
100
0
0
0
100
0
0
0
0
0
0
0
0
100
0
0
0
0
0
0
100
0
0
0
0
0
100
0
0
0
0
0
0
0
0
0
0
0
0
100
0
0
0
0
0
0
0
0
0
0
0
0
100
0
0
0
0
0
0
100
0
0
0
0
0
0
0
0
0
0
100
0
0
0
0
0
100
0
0
0
0
0
0
0
0
0
0
100
0
0
0
0
0
100
0
0
0
0
0
0
0
0
100
0
0
0
0
0
0
0
100
0
0
0
0
0
0
0
100
0
0
0
0
0
0
0
0
0
100
0
0
0
0
0
0
100
0
0
0
0
100
0
0
0
0
0
0
0
0
0
0
100
0
0
100
0
0
0
0
0
0
0
0
0
0
0
0
0
0
100
0
0
100
0
0
0
0
0
0
0
0
0
0
0
100
0
0
100
0
0
0
0
0
0
0
0
0
0
0
0
100
0
0
0
0
0
100
0
0
0
0
0
0
0
100
0
0
0
0
0
0
0
0
0
0
0
0
100
0
100
0
0
0
0
0
0
0
0
0
0
0
0
100
0
100
0
0
0
0
0
0
0
0
0
0
100
0
0
0
0
0
0
0
0
100
0
0
100
1
0
0
0
0
0
0
0
0
0
0
1
0
0
0
0
100
0
0
0
0
0
0
0
1
0
0
0
0
0
0
0
0
0
1
100
0
0
0
0
0
0
0
0
0
0
0
0
0
100
0
0
0
1
0
0
0
0
0
0
0
0
0
0
0
0
100
0
0
1
0
0
0
0
0
0
0
0
0
0
0
0
0
0
100
0
0
0
1
0
0
0
0
0
0
0
100
0
0
0
0
0
0
1
0
0
0
0
0
0
0
0
0
0
0
100
0
0
0
0
1
100
0
0
0
0
0
0
0
0
0
0
100
0
0
0
1
0
0
0
0
0
0
0
0
0
0
0
0
0
0
100
0
0
0
0
1
0
0
0
0
0
0
0
0
0
0
0
0
0
0
100
0
0
0
0
0
0
0
1
0
0
0
0
0
0
0
0
0
0
0
0
0
0
100
0
1
0
0
0
0
0
0
0
0
0
0
0
0
0
0
101
0
0
0
101
1
100
0
0
101
0
0
0
0
101
0
0
0
0
0
0
1
0
0
0
101
0
0
0
0
0
101
0
0
100
0
0
0
0
0
0
0
1
101
0
0
101
0
0
0
0
0
0
0
0
0
0
1
0
0
0
100
101
101
0
0
0
0
0
0
0
0
1
0
0
0
0
0
0
0
101
0
101
0
0
0
100
1
0
0
0
0
101
0
0
0
0
0
0
101
0
0
0
0
0
1
101
0
0
0
0
0
0
0
100
0
101
101
0
0
0
0
0
0
0
0
0
1
0
0
101
0
0
0
0
100
0
0
0
0
0
0
0
0
1
0
0
0
0
0
0
0
0
0
0
0
0
0
0
0
100
0
1
0
0
0
0
0
0
0
0
0
0
0
0
0
0
1
0
0
0
0
0
0
0
100
0
1
0
0
0
0
0
0
0
0
0
0
0
1
0
0
0
0
0
0
0
100
1
0
0
0
0
0
0
0
0
0
0
1
0
0
0
0
0
100
0
0
1
0
0
0
0
0
0
0
0
0
100
1
0
0
0
0
100
0
0
0
0
0
0
0
1
0
0
100
0
0
0
0
0
0
0
1
0
100
0
0
0
100
0
0
0
1
0
0
100
0
0
0
0
1
0
100
0
0
0
0
100
1
0
0
100
0
1
100
0
0
100
1
100
100
